ITEM: TIMESTEP
2000
ITEM: NUMBER OF ATOMS
50000
ITEM: BOX BOUNDS mm mm mm
-0.5 0.5
-0.5 0.5
-0.5 0.5
ITEM: ATOMS id type x y z radius fx fy fz c_ppc 
350 1 -0.470467 -0.453113 -0.469048 0.01 0 0 -0.10273 0 
695 1 -0.444873 -0.445794 -0.49 0.01 1.63798e-07 -3.01312e-07 0.000853195 0 
938 1 -0.439763 -0.456397 -0.473633 0.01 0 0 -0.10273 0 
1041 1 -0.488393 -0.444275 -0.471329 0.01 0 0 -0.10273 0 
1227 1 -0.453901 -0.459671 -0.459743 0.01 0 0 -0.10273 0 
1360 1 -0.468798 -0.453214 -0.489814 0.01 0 0 -0.10273 0 
1450 1 -0.434096 -0.436898 -0.475568 0.01 0 0 -0.10273 0 
1569 1 -0.462785 -0.434107 -0.48762 0.01 0 0 -0.10273 0 
1613 1 -0.444243 -0.489808 -0.463167 0.01 0 0 -0.10273 0 
2094 1 -0.450962 -0.489834 -0.489994 0.01 0 0 -0.10273 0 
2651 1 -0.453541 -0.441113 -0.471107 0.01 0.0319819 0.00614404 0.150382 1 
2659 1 -0.472388 -0.474113 -0.49 0.01 0.0202685 0.00391745 0.000488172 0 
2687 1 -0.450248 -0.468851 -0.49 0.01 -0.0054411 -0.0198125 0 0 
2766 1 -0.476146 -0.488452 -0.463304 0.01 0 0 -0.10273 0 
3137 1 -0.489863 -0.453496 -0.489659 0.01 0 0 -0.10273 0 
3189 1 -0.464362 -0.472287 -0.471637 0.01 0 0 -0.10273 0 
123 1 -0.414679 -0.434361 -0.453495 0.01 -0.480958 -0.310674 0.169862 1 
210 1 -0.371121 -0.489924 -0.489912 0.01 -0.0480258 -0.12025 -0.259639 1 
391 1 -0.408768 -0.478161 -0.471022 0.01 3.14464 -0.52277 -0.38189 1 
872 1 -0.368501 -0.456658 -0.473002 0.01 0 0 -0.10273 0 
889 1 -0.382697 -0.443583 -0.486622 0.01 0.606123 -0.201005 0.0183429 1 
916 1 -0.413315 -0.471191 -0.49 0.01 -0.0196426 -0.00602567 5.43311e-08 0 
947 1 -0.40598 -0.489918 -0.49 0.01 0.0303391 -0.00331228 0.049867 0 
1074 1 -0.403433 -0.453458 -0.49 0.01 0.0243921 0.08925 -0.0482472 1 
1245 1 -0.428748 -0.4783 -0.47123 0.01 1.67224 0.860115 5.29299 3 
1448 1 -0.356445 -0.476325 -0.49 0.01 -0.00310098 0.0191699 -0.00563437 0 
1475 1 -0.428037 -0.457553 -0.489987 0.01 0 0 -0.10273 0 
1690 1 -0.357955 -0.456372 -0.489995 0.01 0 0 -0.10273 0 
2020 1 -0.379565 -0.467328 -0.460184 0.01 0 0 -0.10273 0 
2060 1 -0.36994 -0.476497 -0.475139 0.01 0.0480258 0.12025 0.0541787 1 
2186 1 -0.370218 -0.437017 -0.469341 0.01 0 0 -0.10273 0 
2391 1 -0.398296 -0.461072 -0.456817 0.01 0 0 -0.10273 0 
2562 1 -0.392512 -0.463969 -0.476529 0.01 0 0 -0.10273 0 
2642 1 -0.364051 -0.437106 -0.4899 0.01 0 0 -0.10273 0 
2681 1 -0.431654 -0.483864 -0.49007 0.01 1.85855 -2.48243 1.58295 1 
2723 1 -0.387508 -0.490015 -0.473843 0.01 0.249096 8.41428 8.15662 1 
2956 1 -0.389312 -0.478536 -0.490038 0.01 -0.600911 2.28032 0.862103 1 
3055 1 -0.392813 -0.444846 -0.469411 0.01 0 0 -0.10273 0 
3059 1 -0.355135 -0.489955 -0.474705 0.01 0 0 -0.10273 0 
3102 1 -0.410699 -0.455443 -0.471471 0.01 0 0 -0.10273 0 
3112 1 -0.377247 -0.462552 -0.49 0.01 -0.00911306 0.0184155 4.82378e-06 0 
3320 1 -0.417909 -0.466774 -0.456473 0.01 0 0 -0.10273 0 
266 1 -0.350931 -0.443797 -0.476107 0.01 0 0 -0.10273 0 
528 1 -0.304262 -0.440902 -0.490013 0.01 -1.23394 0.794158 -0.879883 2 
870 1 -0.294819 -0.473292 -0.473782 0.01 -0.0749675 -0.280326 -0.890807 3 
1192 1 -0.341847 -0.489999 -0.489997 0.01 0 0 -0.10273 0 
1393 1 -0.281837 -0.445106 -0.457642 0.01 -6.96353 5.56377 1.06485 4 
1406 1 -0.338325 -0.444326 -0.460139 0.01 -0.716125 0.656932 1.25507 1 
1667 1 -0.285549 -0.480429 -0.490002 0.01 0.486463 -0.26913 -0.299315 3 
1727 1 -0.319613 -0.440507 -0.46786 0.01 0.601197 -0.323072 0.312603 1 
1796 1 -0.320846 -0.490004 -0.469849 0.01 0.493799 -0.219026 1.35176 1 
1942 1 -0.321798 -0.472762 -0.47991 0.01 -0.92928 0.0641715 0.266885 6 
2101 1 -0.317202 -0.456128 -0.489989 0.01 -7.50681 -0.963745 -13.7486 3 
2110 1 -0.305424 -0.478241 -0.490001 0.01 -0.909859 0.177796 -0.0272077 4 
2142 1 -0.292622 -0.445399 -0.47443 0.01 -1.94743 0.680514 -1.63757 2 
2496 1 -0.308689 -0.457075 -0.471959 0.01 7.10592 1.97574 12.4721 1 
2547 1 -0.293298 -0.462698 -0.456897 0.01 -1.64425 1.93098 -0.389364 2 
2697 1 -0.338305 -0.467636 -0.489971 0.01 0.188455 -0.108116 0.0109972 1 
2771 1 -0.321594 -0.490006 -0.490006 0.01 -0.128675 -0.0415373 0.0171486 2 
2842 1 -0.294563 -0.459587 -0.49 0.01 -3.26505e-16 -1.45902e-18 -1.24206e-13 0 
2958 1 -0.330727 -0.455641 -0.474761 0.01 0.435571 0.61799 -0.0400383 3 
2981 1 -0.343495 -0.473922 -0.471558 0.01 0 0 -0.10273 0 
3149 1 -0.335889 -0.443797 -0.490013 0.01 0.142098 -0.371922 -0.0659818 2 
6 1 -0.256501 -0.453668 -0.465374 0.01 2.07094 -2.58854 -6.58687 3 
142 1 -0.253817 -0.438433 -0.47802 0.01 0.198969 0.441904 -0.670251 2 
149 1 -0.228657 -0.4523 -0.472441 0.01 0 0 -0.10273 0 
193 1 -0.279552 -0.490025 -0.47351 0.01 -1.00986 1.99312 -0.878901 1 
267 1 -0.237181 -0.490003 -0.489997 0.01 0.289081 0.282502 -0.0102204 1 
425 1 -0.275902 -0.472993 -0.46379 0.01 0.630478 1.13186 4.19079 4 
443 1 -0.23667 -0.443115 -0.489994 0.01 0.18258 0.197021 -0.25439 1 
686 1 -0.22863 -0.432465 -0.475023 0.01 0 0 -0.10273 0 
770 1 -0.265792 -0.490001 -0.489947 0.01 0.262308 -0.155611 -0.072547 1 
863 1 -0.216567 -0.444017 -0.49 0.01 -0.151183 -0.247656 0.0213726 1 
955 1 -0.249492 -0.457141 -0.483766 0.01 1.35866 -0.956259 -2.96713 3 
1212 1 -0.266688 -0.448568 -0.490039 0.01 2.15241 1.52975 1.17449 1 
1442 1 -0.219184 -0.439458 -0.458749 0.01 0 0 -0.10273 0 
1574 1 -0.272942 -0.435279 -0.472813 0.01 0 0 -0.10273 0 
1888 1 -0.226164 -0.461565 -0.49 0.01 0 0 -0.10273 0 
1937 1 -0.225131 -0.472131 -0.459883 0.01 0 0 -0.10273 0 
1963 1 -0.241365 -0.488972 -0.468058 0.01 0.557135 -0.521689 -0.0747144 1 
2010 1 -0.251483 -0.476031 -0.490003 0.01 -0.475711 -0.132049 -0.107303 4 
2238 1 -0.25789 -0.478061 -0.470847 0.01 -0.805478 0.637054 0.0165481 2 
2452 1 -0.265276 -0.429431 -0.454732 0.01 0 0 -0.10273 0 
2607 1 -0.274856 -0.455445 -0.473226 0.01 -1.32057 1.63597 5.142 3 
2888 1 -0.283203 -0.436998 -0.489997 0.01 -0.235991 0.652127 0.715686 1 
3135 1 -0.225332 -0.478232 -0.47897 0.01 0 0 -0.10273 0 
3138 1 -0.269793 -0.468338 -0.487677 0.01 -0.042369 0.273772 0.0811628 2 
3187 1 -0.249444 -0.441575 -0.451075 0.01 0.0189607 -0.279487 -0.335387 2 
71 1 -0.149971 -0.463674 -0.462108 0.01 0 0 -0.10273 0 
73 1 -0.154138 -0.452554 -0.490003 0.01 -0.111366 0.9022 -0.166312 2 
208 1 -0.177092 -0.470471 -0.490002 0.01 -0.515513 0.34532 -0.0721386 2 
241 1 -0.164854 -0.428788 -0.46445 0.01 2.25307 1.02487 -3.03987 3 
251 1 -0.163716 -0.447619 -0.473065 0.01 -1.07812 -0.0203775 -0.290968 1 
491 1 -0.155816 -0.430896 -0.490003 0.01 -0.641075 -0.100435 0.247565 2 
608 1 -0.207011 -0.471556 -0.468431 0.01 0 0 -0.10273 0 
655 1 -0.196083 -0.441498 -0.489992 0.01 0 0 -0.10273 0 
726 1 -0.187583 -0.472969 -0.473149 0.01 0 0 -0.10273 0 
776 1 -0.162856 -0.4488 -0.453062 0.01 2.30089 -2.60567 -0.193494 1 
1003 1 -0.196023 -0.480196 -0.489999 0.01 0 0 -0.10273 0 
1073 1 -0.173999 -0.432492 -0.481837 0.01 -0.152416 0.957519 -0.242261 4 
1081 1 -0.208488 -0.45197 -0.473044 0.01 -0.358536 -1.1029 -0.139934 2 
1204 1 -0.193227 -0.442906 -0.458823 0.01 0 0 -0.10273 0 
1563 1 -0.152884 -0.483231 -0.490031 0.01 1.45903 1.09593 0.958338 1 
1767 1 -0.178884 -0.490012 -0.486274 0.01 -0.374497 0.0856186 -0.359764 1 
1827 1 -0.174036 -0.45073 -0.490005 0.01 -1.01843 1.0506 -0.122328 3 
2031 1 -0.148819 -0.487183 -0.460325 0.01 2.12088 0.470917 3.02083 1 
2187 1 -0.16018 -0.468058 -0.478798 0.01 0 0 -0.10273 0 
2373 1 -0.188565 -0.45308 -0.475489 0.01 0 0 -0.10273 0 
2392 1 -0.174141 -0.461862 -0.463265 0.01 0 0 -0.10273 0 
2398 1 -0.21349 -0.489983 -0.49 0.01 -0.000105441 0.000134411 -0.0332857 0 
2518 1 -0.203588 -0.461548 -0.489894 0.01 0.0761312 -0.305024 -0.467095 1 
2628 1 -0.198075 -0.489999 -0.472686 0.01 0 0 -0.10273 0 
2801 1 -0.144987 -0.444512 -0.466801 0.01 -0.25724 -0.661948 1.0879 4 
2899 1 -0.162947 -0.489986 -0.474186 0.01 -4.9175 -2.46855 3.77834 2 
69 1 -0.123176 -0.450167 -0.49 0.01 -1.18933 1.70457 0.0338225 1 
77 1 -0.138716 -0.458993 -0.479054 0.01 -0.627425 -0.376745 0.421644 5 
85 1 -0.134571 -0.475167 -0.490011 0.01 0.338516 -0.534791 0.348008 2 
314 1 -0.114578 -0.436539 -0.474233 0.01 0.0161326 0.454208 3.12247 3 
493 1 -0.0935618 -0.457764 -0.477658 0.01 0 0 -0.10273 0 
557 1 -0.0920889 -0.467683 -0.457518 0.01 0.246516 -0.023981 -0.280255 1 
596 1 -0.102622 -0.450682 -0.460686 0.01 0 0 -0.10273 0 
910 1 -0.126197 -0.490004 -0.479559 0.01 0.249897 -0.281759 -0.141454 3 
936 1 -0.0779747 -0.472081 -0.470984 0.01 -0.158106 0.458406 1.36553 2 
1307 1 -0.0911409 -0.490002 -0.490001 0.01 -1.58332 -0.470542 -0.453943 2 
1481 1 -0.0821601 -0.443281 -0.469105 0.01 0 0 -0.10273 0 
1611 1 -0.145782 -0.432232 -0.451041 0.01 -0.0589641 -1.23033 -1.12667 1 
1669 1 -0.0776133 -0.457785 -0.489918 0.01 0.0519791 -0.376114 -0.158101 2 
1850 1 -0.0754104 -0.477662 -0.490008 0.01 -0.0419239 0.378388 2.02499 5 
1931 1 -0.122922 -0.4536 -0.468061 0.01 -0.221021 -0.285395 3.02974 3 
2112 1 -0.103633 -0.444074 -0.489973 0.01 0 0 -0.10273 0 
2113 1 -0.110223 -0.48402 -0.49 0.01 -0.292524 -0.00206718 0.0688322 2 
2334 1 -0.134643 -0.475409 -0.46839 0.01 0.00823963 -0.883228 0.477159 1 
2504 1 -0.0976754 -0.477614 -0.475457 0.01 0 0 -0.10273 0 
2602 1 -0.108806 -0.46407 -0.489998 0.01 1.16938 -1.69212 -0.121689 1 
2725 1 -0.0841443 -0.43889 -0.489484 0.01 -0.0895638 0.0666339 -0.00534212 2 
2941 1 -0.114273 -0.48563 -0.464111 0.01 0.150723 0.0254875 0.0178541 1 
119 1 -0.0225472 -0.459349 -0.467575 0.01 -0.366694 0.841845 1.32664 2 
264 1 0.00253706 -0.48728 -0.476813 0.01 0 0 -0.10273 0 
327 1 0.00193698 -0.448709 -0.46557 0.01 -0.286236 -0.123663 0.126699 1 
340 1 -0.0578073 -0.470212 -0.484163 0.01 1.87544 2.06279 3.20083 4 
482 1 -0.0517152 -0.428465 -0.472207 0.01 0 0 -0.10273 0 
659 1 -0.00422049 -0.467209 -0.47023 0.01 0 0 -0.10273 0 
669 1 -0.0387526 -0.471715 -0.490012 0.01 -0.37378 0.0176691 0.825477 3 
909 1 -0.0199643 -0.471523 -0.483189 0.01 -0.0508771 0.679974 1.32031 4 
1131 1 -0.0116332 -0.434362 -0.474392 0.01 0 0 -0.10273 0 
1136 1 -0.041325 -0.489814 -0.481698 0.01 0 0 -0.10273 0 
1284 1 -0.0622811 -0.445825 -0.471232 0.01 -0.138657 0.772665 -9.7721 1 
1355 1 -0.0576002 -0.45109 -0.490002 0.01 -0.150467 0.439505 0.0557458 2 
1389 1 0.0050019 -0.447229 -0.490001 0.01 0.0281599 -0.0379603 0.133594 0 
1685 1 -0.0581612 -0.44814 -0.451834 0.01 2.86163 0.400421 1.47546 2 
1764 1 -0.0134791 -0.452672 -0.484536 0.01 2.09706 3.91597 0.109934 1 
1822 1 -0.0154246 -0.490001 -0.468286 0.01 0.056108 -0.299363 -0.123626 0 
1831 1 -0.0345027 -0.486838 -0.463032 0.01 0 0 -0.10273 0 
1927 1 -0.042951 -0.426776 -0.453478 0.01 0 0 -0.10273 0 
2024 1 0.0175727 -0.48992 -0.489805 0.01 0 0 -0.10273 0 
2163 1 -0.0358249 -0.452235 -0.484289 0.01 0 0 -0.10273 0 
2346 1 -0.0596721 -0.490001 -0.490001 0.01 -0.408099 0.232084 0.0520077 1 
2485 1 -0.0590908 -0.472127 -0.464298 0.01 -0.0302706 -0.0373122 -0.686967 1 
2590 1 -0.0443903 -0.434609 -0.49 0.01 -0.0204062 0.00743468 0.00586189 0 
2684 1 -0.000447387 -0.468722 -0.489935 0.01 0 0 -0.10273 0 
2825 1 -0.0241912 -0.436176 -0.489946 0.01 0 0 -0.10273 0 
2848 1 -0.0642554 -0.432234 -0.489997 0.01 0.0405229 -0.101479 -0.0813817 1 
2948 1 -0.0158629 -0.443668 -0.45716 0.01 0.675353 1.22075 1.3018 2 
2969 1 -0.0405644 -0.467637 -0.470529 0.01 0.155302 0.419728 1.43363 1 
3074 1 -0.0229709 -0.49002 -0.490014 0.01 0.489571 -0.8431 1.21343 1 
213 1 0.0578602 -0.490004 -0.480935 0.01 -1.31685 1.79738 1.07253 1 
638 1 0.0244921 -0.483072 -0.472061 0.01 0.0207991 0.0278488 -0.103679 1 
833 1 0.0256849 -0.469829 -0.489968 0.01 0 0 -0.10273 0 
1174 1 0.00428072 -0.427122 -0.49002 0.01 0.101738 -0.215773 0.413009 2 
1190 1 0.0544427 -0.444918 -0.475049 0.01 -2.52951 -1.20018 6.06468 2 
1316 1 0.066472 -0.442725 -0.457993 0.01 0 0 -0.10273 0 
1358 1 0.0419892 -0.481426 -0.489912 0.01 0 0 -0.10273 0 
1691 1 0.0429534 -0.458286 -0.490003 0.01 -0.0135009 0.0822537 -0.284762 1 
1758 1 0.0164184 -0.438985 -0.475345 0.01 -0.2251 0.473964 0.329657 2 
1938 1 0.0623484 -0.463597 -0.471332 0.01 0 0 -0.10273 0 
2251 1 0.0252201 -0.460302 -0.460043 0.01 0 0 -0.10273 0 
2273 1 0.0627259 -0.455126 -0.490036 0.01 0.323813 -3.30546 2.36811 2 
2837 1 0.0249613 -0.449547 -0.490006 0.01 -5.29602 -3.26 0.281111 2 
2868 1 0.0139985 -0.460516 -0.476604 0.01 0 0 -0.10273 0 
2954 1 0.0526536 -0.480536 -0.464085 0.01 -0.505835 -0.454672 -0.413807 2 
3223 1 0.0242553 -0.427853 -0.489999 0.01 0.295729 0.0223213 -0.117742 2 
3242 1 0.0391451 -0.469596 -0.473962 0.01 -0.414758 0.182966 -0.411214 3 
3330 1 0.041368 -0.438192 -0.489995 0.01 -1.84956 -0.438865 0.123934 3 
359 1 0.109672 -0.436383 -0.477198 0.01 -0.346826 -2.16057 1.72518 3 
420 1 0.113437 -0.481615 -0.485366 0.01 -0.387508 0.272854 0.0698153 1 
549 1 0.130989 -0.490007 -0.490002 0.01 -1.05776 2.6027 0.281818 3 
598 1 0.118256 -0.449052 -0.490019 0.01 0.230501 0.00835955 0.386619 2 
817 1 0.133036 -0.436123 -0.485252 0.01 0.943829 -0.751761 0.747235 2 
1009 1 0.0986196 -0.464174 -0.470568 0.01 -0.173576 -0.109125 -0.192507 1 
1592 1 0.0958362 -0.489985 -0.49 0.01 0.0203278 -0.00299391 5.49015e-06 0 
1940 1 0.086501 -0.452094 -0.460203 0.01 0.877034 0.313864 1.7881 3 
1985 1 0.098597 -0.436194 -0.460593 0.01 -1.73808 0.259433 2.31031 3 
1996 1 0.109906 -0.478355 -0.461737 0.01 0 0 -0.10273 0 
2061 1 0.0818176 -0.461308 -0.49 0.01 -0.0221848 0.0105159 0.0200248 0 
2482 1 0.11931 -0.464353 -0.47706 0.01 0 0 -0.10273 0 
2565 1 0.130894 -0.481092 -0.472111 0.01 -0.15217 1.52439 1.89507 1 
2646 1 0.0962801 -0.443928 -0.49 0.01 0 0 -0.10273 0 
2667 1 0.0750582 -0.44799 -0.476045 0.01 -0.148586 -0.940118 0.523366 3 
2817 1 0.103263 -0.462884 -0.489991 0.01 0 0 -0.10273 0 
2866 1 0.136112 -0.45616 -0.484584 0.01 0.264636 -0.207825 0.340637 4 
3008 1 0.0756791 -0.489973 -0.490001 0.01 1.40661 0.399654 -0.247402 2 
3077 1 0.125929 -0.447516 -0.468388 0.01 0 0 -0.10273 0 
3139 1 0.0853957 -0.477108 -0.478169 0.01 0.116281 0.0412014 -0.109421 2 
3307 1 0.0793777 -0.488994 -0.46265 0.01 0 0 -0.10273 0 
55 1 0.208588 -0.440235 -0.476021 0.01 0.455175 0.91671 1.28673 1 
64 1 0.204567 -0.453941 -0.490012 0.01 1.00553 0.800732 1.11117 2 
240 1 0.191602 -0.458817 -0.475621 0.01 2.00587 -1.85014 0.207338 3 
259 1 0.156604 -0.479476 -0.476296 0.01 -2.61974 5.97035 -7.01903 3 
292 1 0.210597 -0.431071 -0.442333 0.01 -0.167212 0.186977 -0.167678 1 
401 1 0.143084 -0.474087 -0.490006 0.01 0.376865 -0.58438 0.368293 3 
511 1 0.171741 -0.471986 -0.449473 0.01 0 0 -0.10273 0 
512 1 0.213136 -0.426906 -0.461818 0.01 -6.32318 -0.587062 4.30592 1 
517 1 0.152825 -0.478073 -0.454332 0.01 -2.00131 2.58643 1.08135 1 
678 1 0.189879 -0.429352 -0.49 0.01 -0.0185609 0.0088109 6.02154e-11 0 
685 1 0.143763 -0.466012 -0.468965 0.01 0.224962 -0.412894 0.428499 4 
703 1 0.178453 -0.454059 -0.49 0.01 -5.37994e-14 -4.68075e-14 -7.77218e-10 0 
791 1 0.189414 -0.436905 -0.471131 0.01 -0.0964961 0.296595 -0.0937147 1 
966 1 0.169756 -0.434318 -0.489988 0.01 0 0 -0.10273 0 
1161 1 0.175037 -0.473294 -0.469431 0.01 2.25133 2.52564 -0.705261 2 
1491 1 0.17959 -0.434418 -0.453802 0.01 -0.336475 -0.114915 -0.449851 1 
1632 1 0.153127 -0.447149 -0.49 0.01 -0.0289016 0.00258401 -0.247814 0 
1653 1 0.166567 -0.490023 -0.462549 0.01 3.48897 -5.20738 7.55459 3 
1814 1 0.207652 -0.48996 -0.49 0.01 0.000928961 0.0105952 -0.0495508 0 
1933 1 0.189694 -0.472646 -0.489965 0.01 0 0 -0.10273 0 
2085 1 0.209271 -0.471683 -0.482041 0.01 0.0424968 0.0840959 -0.177728 1 
2095 1 0.177078 -0.454481 -0.462595 0.01 -3.98165 1.12922 2.22756 1 
2223 1 0.171069 -0.481286 -0.489996 0.01 0 0 -0.10273 0 
2231 1 0.163307 -0.459665 -0.478174 0.01 -0.781625 1.4545 -0.984617 1 
2774 1 0.146703 -0.446302 -0.470798 0.01 1.14218 0.685343 0.407425 2 
3063 1 0.200499 -0.451841 -0.459127 0.01 0.400947 0.101705 0.218597 2 
3213 1 0.186251 -0.489837 -0.480158 0.01 0 0 -0.10273 0 
3325 1 0.200326 -0.48263 -0.467895 0.01 -0.0424968 -0.0840959 -0.0277319 1 
16 1 0.291663 -0.443928 -0.489879 0.01 0 0 -0.10273 0 
28 1 0.235943 -0.442101 -0.471585 0.01 -0.0938718 -0.170129 -0.905704 3 
92 1 0.262826 -0.480962 -0.451417 0.01 0 0 -0.10273 0 
153 1 0.231541 -0.489759 -0.489721 0.01 0 0 -0.10273 0 
435 1 0.284621 -0.489966 -0.489961 0.01 0.0675834 0.545696 0.331149 1 
450 1 0.258318 -0.458311 -0.49 0.01 0.35883 0.974792 -0.690088 3 
475 1 0.258044 -0.434564 -0.457911 0.01 0 0 -0.10273 0 
559 1 0.22591 -0.479678 -0.471825 0.01 -3.0316 -0.754652 -4.8736 1 
894 1 0.272488 -0.489476 -0.467499 0.01 0 0 -0.10273 0 
927 1 0.256915 -0.443943 -0.475709 0.01 0 0 -0.10273 0 
1010 1 0.242913 -0.445562 -0.490002 0.01 0.436604 -0.70747 -0.0323165 2 
1097 1 0.277696 -0.437877 -0.471124 0.01 0 0 -0.10273 0 
1571 1 0.268128 -0.478636 -0.490001 0.01 0.0583069 0.0167681 -0.0609316 1 
1597 1 0.243489 -0.471733 -0.489989 0.01 -0.0129512 0.00409359 -0.100905 1 
1886 1 0.252595 -0.484155 -0.470931 0.01 -4.99885 -4.80983 0.914226 3 
1976 1 0.239599 -0.476937 -0.457572 0.01 1.71527 -2.04441 1.00872 4 
2107 1 0.289495 -0.45638 -0.474083 0.01 0 0 -0.10273 0 
2200 1 0.222691 -0.443196 -0.489994 0.01 0 0 -0.10273 0 
2205 1 0.219826 -0.446981 -0.4608 0.01 0.151509 0.0821875 -0.197876 2 
2429 1 0.264109 -0.468031 -0.473508 0.01 5.15631 5.36581 -0.129484 2 
2465 1 0.225493 -0.46301 -0.49 0.01 0.022217 -0.0291865 0.0291894 1 
2790 1 0.263363 -0.453797 -0.459473 0.01 -2.11676 -1.60765 -3.85794 1 
2943 1 0.278172 -0.460709 -0.490001 0.01 -1.20048 -1.08154 -0.286089 2 
3038 1 0.251679 -0.490006 -0.490012 0.01 0.224326 -0.0911658 0.116054 2 
3116 1 0.239622 -0.462133 -0.472843 0.01 0 0 -0.10273 0 
3214 1 0.270796 -0.441903 -0.489997 0.01 0 0 -0.10273 0 
411 1 0.358088 -0.440531 -0.471047 0.01 0 0 -0.10273 0 
434 1 0.338655 -0.443091 -0.475023 0.01 0 0 -0.10273 0 
565 1 0.314255 -0.45654 -0.474574 0.01 0 0 -0.10273 0 
1138 1 0.350342 -0.465866 -0.490011 0.01 -0.943068 0.278669 0.0743482 2 
1348 1 0.303252 -0.474834 -0.474433 0.01 1.44576 2.18903 -1.85767 1 
1476 1 0.346882 -0.454607 -0.46011 0.01 1.1383 1.44997 -3.91802 3 
1581 1 0.326555 -0.470069 -0.49 0.01 0.0396585 -0.00911115 0.100728 0 
1589 1 0.282738 -0.475025 -0.476805 0.01 -0.131057 0.306962 -1.46271 2 
1621 1 0.338068 -0.465625 -0.474255 0.01 -2.68472 -0.583543 0.340817 3 
1763 1 0.323784 -0.480168 -0.471806 0.01 0 0 -0.10273 0 
1906 1 0.358008 -0.480329 -0.472914 0.01 0 0 -0.10273 0 
2159 1 0.32724 -0.450075 -0.489976 0.01 0 0 -0.10273 0 
2280 1 0.304469 -0.487392 -0.49 0.01 0.017773 -0.0075821 -0.00611634 0 
2282 1 0.287054 -0.472667 -0.457101 0.01 0 0 -0.10273 0 
2323 1 0.324036 -0.440477 -0.461557 0.01 0 0 -0.10273 0 
2360 1 0.3025 -0.461473 -0.49 0.01 2.17776e-10 7.77609e-11 7.75231e-07 0 
2692 1 0.305146 -0.428741 -0.49 0.01 -0.216531 -0.00338759 -1.18552 0 
2992 1 0.291901 -0.445253 -0.457634 0.01 0.260597 1.66433 -2.9265 2 
3019 1 0.292717 -0.489981 -0.466777 0.01 -1.44576 -2.18903 1.65221 1 
3030 1 0.324317 -0.489946 -0.49 0.01 -4.92651e-05 0.000173313 0.000618456 0 
3072 1 0.343281 -0.484341 -0.487012 0.01 0 0 -0.10273 0 
45 1 0.403636 -0.478423 -0.489478 0.01 0.639068 -1.04523 -0.185623 1 
139 1 0.397862 -0.435139 -0.489956 0.01 0 0 -0.10273 0 
230 1 0.416982 -0.463449 -0.475114 0.01 0 0 -0.10273 0 
788 1 0.419765 -0.442079 -0.472659 0.01 0.877253 -0.703395 1.17921 3 
881 1 0.362243 -0.489991 -0.489995 0.01 0 0 -0.10273 0 
931 1 0.377961 -0.4427 -0.470094 0.01 -2.24008 -1.77289 0.227419 1 
1236 1 0.396305 -0.459832 -0.490025 0.01 0.0439437 -0.594053 1.87209 4 
1308 1 0.398621 -0.470203 -0.470016 0.01 0 0 -0.10273 0 
1338 1 0.381526 -0.46216 -0.476848 0.01 -0.935514 -1.66064 2.08977 2 
1539 1 0.398854 -0.450195 -0.472701 0.01 0.596037 0.765226 1.7921 1 
1553 1 0.37715 -0.489856 -0.463598 0.01 0 0 -0.10273 0 
1706 1 0.384423 -0.489981 -0.489782 0.01 0 0 -0.10273 0 
1719 1 0.380679 -0.445387 -0.489871 0.01 0 0 -0.10273 0 
1830 1 0.445451 -0.489986 -0.478801 0.01 0 0 -0.10273 0 
1832 1 0.38004 -0.423963 -0.489865 0.01 0 0 -0.10273 0 
1883 1 0.413571 -0.449801 -0.490012 0.01 -0.733474 -1.00189 0.325571 3 
1978 1 0.40636 -0.488008 -0.454561 0.01 0 0 -0.10273 0 
2076 1 0.410154 -0.459437 -0.456689 0.01 -6.42006 -8.8553 -4.13917 1 
2106 1 0.434271 -0.484335 -0.460568 0.01 0 0 -0.10273 0 
2367 1 0.369571 -0.471332 -0.490001 0.01 1.8453 -0.56807 0.120332 1 
2584 1 0.360645 -0.448709 -0.489911 0.01 0 0 -0.10273 0 
2608 1 0.416091 -0.483261 -0.472452 0.01 0 0 -0.10273 0 
2961 1 0.397147 -0.489945 -0.473198 0.01 0 0 -0.10273 0 
3145 1 0.421947 -0.445313 -0.448982 0.01 6.30321 5.12172 5.314 2 
3186 1 0.424969 -0.428063 -0.458624 0.01 -2.7191 1.78845 -1.77654 3 
27 1 0.490001 -0.434823 -0.490004 0.01 0.0609709 -0.565024 -0.0152302 1 
246 1 0.468932 -0.463515 -0.465387 0.01 -0.102139 -0.455953 1.29733 1 
286 1 0.462227 -0.49002 -0.490006 0.01 1.40284 1.39995 0.534025 1 
308 1 0.430403 -0.464777 -0.490001 0.01 -0.184027 0.0213326 0.823567 0 
381 1 0.471494 -0.45394 -0.482746 0.01 -0.848519 -0.625555 0.795065 4 
397 1 0.46186 -0.482742 -0.469892 0.01 0 0 -0.10273 0 
604 1 0.489977 -0.473855 -0.48021 0.01 0 0 -0.10273 0 
616 1 0.46892 -0.440943 -0.466444 0.01 0 0 -0.10273 0 
692 1 0.450185 -0.474108 -0.490017 0.01 -0.848747 3.27785 -1.81453 2 
722 1 0.44584 -0.465949 -0.472335 0.01 -4.57917 3.50427 -5.12188 3 
1019 1 0.489967 -0.456362 -0.489998 0.01 3.12421 -0.946555 -0.955502 1 
1201 1 0.423048 -0.489986 -0.489984 0.01 0 0 -0.10273 0 
1216 1 0.489857 -0.446172 -0.472785 0.01 0 0 -0.10273 0 
1512 1 0.445939 -0.44163 -0.475151 0.01 0.132508 -0.475313 0.0127001 3 
1817 1 0.472542 -0.472526 -0.490007 0.01 0.307241 -1.12681 0.696777 1 
2117 1 0.431339 -0.455491 -0.463413 0.01 0.589334 -0.299302 2.73164 2 
2195 1 0.485472 -0.490004 -0.468521 0.01 -0.186763 1.36395 -0.301561 0 
2800 1 0.482947 -0.489912 -0.49 0.01 0.0843495 0.0207749 0.331621 0 
2953 1 0.43276 -0.444195 -0.49 0.01 3.06526 1.14491 0.506438 1 
2970 1 0.45168 -0.454076 -0.489713 0.01 -0.318949 0.701726 0.80614 1 
3190 1 0.463362 -0.43626 -0.487239 0.01 0.719774 0.907604 0.654311 2 
371 1 -0.444487 -0.358379 -0.490001 0.01 0.00218025 -0.00186612 0.261508 1 
497 1 -0.468869 -0.427129 -0.46943 0.01 0 0 -0.10273 0 
553 1 -0.458353 -0.410249 -0.47283 0.01 3.08832 -0.867304 -0.111927 1 
839 1 -0.436868 -0.367471 -0.473676 0.01 0.794213 -0.887996 -0.0153991 1 
1106 1 -0.475716 -0.378073 -0.475198 0.01 0 0 -0.10273 0 
1141 1 -0.444958 -0.424689 -0.49 0.01 0.0181984 0.0095371 -2.35922e-15 0 
1294 1 -0.489915 -0.388945 -0.465809 0.01 0 0 -0.10273 0 
1629 1 -0.451046 -0.40108 -0.489921 0.01 0 0 -0.10273 0 
1710 1 -0.46512 -0.386833 -0.489992 0.01 0 0 -0.10273 0 
2002 1 -0.461408 -0.367048 -0.483797 0.01 -0.888488 1.96957 -1.80139 2 
2050 1 -0.487885 -0.385629 -0.49 0.01 -2.02567 4.07832 -3.39169 1 
2105 1 -0.468588 -0.413732 -0.48988 0.01 0 0 -0.10273 0 
2167 1 -0.441157 -0.378244 -0.489989 0.01 0 0 -0.10273 0 
2368 1 -0.437594 -0.401301 -0.458458 0.01 0 0 -0.10273 0 
2450 1 -0.44977 -0.36473 -0.453644 0.01 0 0 -0.10273 0 
2464 1 -0.489991 -0.409838 -0.49001 0.01 -0.663751 -0.191709 2.12486 1 
2470 1 -0.47718 -0.39877 -0.479399 0.01 3.10729 -3.32332 4.47248 2 
2677 1 -0.46559 -0.392423 -0.463881 0.01 -8.44963 -2.87499 -8.1181 1 
2765 1 -0.484233 -0.357809 -0.472068 0.01 0 0 -0.10273 0 
2780 1 -0.489658 -0.42081 -0.471919 0.01 0 0 -0.10273 0 
2807 1 -0.48997 -0.365069 -0.48995 0.01 0 0 -0.10273 0 
3042 1 -0.45195 -0.380788 -0.47277 0.01 -1.1573 2.39268 -17.2755 2 
3122 1 -0.439075 -0.415571 -0.472847 0.01 -3.08832 0.867304 -0.0935334 1 
3179 1 -0.483133 -0.429326 -0.489617 0.01 0 0 -0.10273 0 
121 1 -0.41779 -0.403934 -0.451321 0.01 0 0 -0.10273 0 
125 1 -0.415605 -0.417616 -0.465778 0.01 0.561384 -2.76918 2.81025 1 
199 1 -0.436517 -0.394968 -0.477473 0.01 0 0 -0.10273 0 
247 1 -0.389849 -0.374665 -0.47254 0.01 0.409595 -0.487888 0.216372 3 
412 1 -0.422066 -0.380939 -0.471078 0.01 0.690218 1.8326 2.35316 2 
426 1 -0.399801 -0.43379 -0.489998 0.01 -0.632818 0.124483 -0.213613 2 
445 1 -0.377426 -0.397022 -0.469917 0.01 0 0 -0.10273 0 
560 1 -0.393115 -0.406477 -0.46142 0.01 -0.116433 0.965626 -1.71906 2 
677 1 -0.424323 -0.365231 -0.489827 0.01 0 0 -0.10273 0 
826 1 -0.3732 -0.379019 -0.460655 0.01 0 0 -0.10273 0 
842 1 -0.410231 -0.435487 -0.473014 0.01 0 0 -0.10273 0 
855 1 -0.382941 -0.367829 -0.490007 0.01 0.616944 0.525339 -0.0241029 3 
1305 1 -0.417203 -0.40142 -0.477367 0.01 0.435195 -1.88955 -0.524877 3 
1452 1 -0.389352 -0.354345 -0.468211 0.01 0 0 -0.10273 0 
1463 1 -0.42962 -0.410824 -0.489931 0.01 0 0 -0.10273 0 
1535 1 -0.366882 -0.379747 -0.489958 0.01 0.240762 -0.0598369 -0.0525382 2 
1572 1 -0.382361 -0.423515 -0.489972 0.01 0 0 -0.10273 0 
1715 1 -0.372375 -0.363502 -0.47359 0.01 0.0922811 0.0805891 0.0585389 1 
1887 1 -0.421051 -0.432252 -0.49 0.01 0 0 -0.10273 0 
2001 1 -0.381288 -0.420362 -0.469766 0.01 -0.561433 -0.12346 0.378123 1 
2114 1 -0.40711 -0.368815 -0.464315 0.01 -0.973744 0.346303 0.636513 1 
2171 1 -0.375486 -0.424827 -0.450695 0.01 0 0 -0.10273 0 
2193 1 -0.401181 -0.391091 -0.471325 0.01 0.319769 -0.554242 0.358818 3 
2298 1 -0.397294 -0.426496 -0.459469 0.01 1.04239 0.434134 -0.856175 2 
2338 1 -0.352379 -0.391768 -0.454664 0.01 -0.515813 0.387129 0.125735 1 
2569 1 -0.402676 -0.378719 -0.489998 0.01 0 0 -0.10273 0 
2597 1 -0.410163 -0.415466 -0.489996 0.01 0 0 -0.10273 0 
2759 1 -0.394089 -0.407202 -0.481404 0.01 0 0 -0.10273 0 
2824 1 -0.423003 -0.387115 -0.490029 0.01 -0.0168746 0.66013 0.547947 2 
2850 1 -0.378977 -0.397228 -0.489944 0.01 0 0 -0.10273 0 
3123 1 -0.359455 -0.387089 -0.472863 0.01 0 0 -0.10273 0 
60 1 -0.300929 -0.413181 -0.489987 0.01 0 0 -0.10273 0 
276 1 -0.29316 -0.373116 -0.458372 0.01 -0.220557 -1.09703 -2.70399 3 
282 1 -0.346981 -0.424472 -0.490003 0.01 -0.123086 -0.00555717 0.89557 1 
478 1 -0.358666 -0.397981 -0.489953 0.01 0.0517033 -0.200789 -0.0821801 1 
607 1 -0.323388 -0.426388 -0.489954 0.01 0 0 -0.10273 0 
739 1 -0.335691 -0.430864 -0.474786 0.01 -0.457337 -0.680208 1.24658 5 
778 1 -0.308859 -0.425346 -0.476178 0.01 0 0 -0.10273 0 
836 1 -0.31592 -0.423277 -0.45749 0.01 -0.538598 -8.61878 4.65497 1 
971 1 -0.345548 -0.38282 -0.49 0.01 -0.00922268 -0.0179505 -0.00182444 0 
1002 1 -0.283392 -0.394043 -0.489985 0.01 0.418028 -0.554439 -0.342452 2 
1004 1 -0.292163 -0.386077 -0.473537 0.01 -0.259643 -2.59693 -4.04867 3 
1113 1 -0.324032 -0.383082 -0.490002 0.01 -0.263177 0.32743 -0.267819 2 
1146 1 -0.335214 -0.392108 -0.474691 0.01 0.0599095 0.842972 0.734934 1 
1249 1 -0.311187 -0.407005 -0.468028 0.01 -0.0504677 3.51337 -3.79076 3 
1290 1 -0.352963 -0.361411 -0.46921 0.01 0 0 -0.10273 0 
1339 1 -0.303338 -0.392732 -0.490007 0.01 0.0068609 -0.696798 -0.0359101 3 
1503 1 -0.336032 -0.367444 -0.437066 0.01 0.247242 0.0394799 0.0748261 1 
1707 1 -0.323854 -0.352777 -0.477893 0.01 -0.628486 -1.01014 -0.23345 3 
1736 1 -0.282846 -0.391109 -0.455543 0.01 0 0 -0.10273 0 
1820 1 -0.292437 -0.353226 -0.459767 0.01 -1.10854 2.31413 -4.52353 3 
1848 1 -0.303386 -0.390455 -0.456623 0.01 0 0 -0.10273 0 
1939 1 -0.32954 -0.411852 -0.47433 0.01 -1.85918 -0.232997 0.218718 4 
1952 1 -0.294248 -0.374924 -0.490001 0.01 0.619776 2.63488 -0.374049 2 
1965 1 -0.353871 -0.425348 -0.468602 0.01 -0.6212 0.296254 0.233597 1 
1970 1 -0.313468 -0.365689 -0.489999 0.01 0 0 -0.10273 0 
1971 1 -0.33938 -0.40427 -0.490004 0.01 0.623945 -1.11165 0.973402 2 
2016 1 -0.350306 -0.406104 -0.473323 0.01 0 0 -0.10273 0 
2201 1 -0.336573 -0.403681 -0.457515 0.01 -1.93503 0.221011 2.75167 3 
2297 1 -0.313694 -0.38797 -0.4736 0.01 -0.48167 4.13313 1.16858 4 
2436 1 -0.364486 -0.416605 -0.484042 0.01 0 0 -0.10273 0 
2484 1 -0.295797 -0.43037 -0.46082 0.01 0 0 -0.10273 0 
2489 1 -0.315301 -0.368539 -0.469018 0.01 0 0 -0.10273 0 
2515 1 -0.353641 -0.364475 -0.48949 0.01 0 0 -0.10273 0 
2925 1 -0.319351 -0.404762 -0.48996 0.01 3.91759 1.19433 -6.06929 1 
2947 1 -0.333476 -0.365454 -0.48999 0.01 -1.04881 -1.12652 -1.60483 2 
3068 1 -0.345401 -0.372217 -0.454166 0.01 0.39051 0.182088 -0.390098 1 
3141 1 -0.334913 -0.372395 -0.471242 0.01 0 0 -0.10273 0 
19 1 -0.263399 -0.394087 -0.489988 0.01 0.602157 -0.881409 -0.183681 3 
132 1 -0.255618 -0.410181 -0.481003 0.01 -0.0873899 0.177902 0.0376569 1 
283 1 -0.234179 -0.375587 -0.482911 0.01 1.1292 0.308593 -1.22989 2 
392 1 -0.270963 -0.415644 -0.469358 0.01 0 0 -0.10273 0 
654 1 -0.273433 -0.412658 -0.49 0.01 7.28694e-16 1.32801e-16 0 0 
733 1 -0.268614 -0.377297 -0.445203 0.01 -1.07159 -0.0536111 2.79074 3 
764 1 -0.211673 -0.365186 -0.490002 0.01 0.0838878 0.204658 0.395078 2 
796 1 -0.246774 -0.372664 -0.459109 0.01 0 0 -0.10273 0 
1158 1 -0.230603 -0.395301 -0.472546 0.01 0.0989177 -0.0288523 -0.0622724 2 
1238 1 -0.245656 -0.3604 -0.475328 0.01 0.329384 1.45299 -1.43827 2 
1264 1 -0.223009 -0.412044 -0.490003 0.01 0.491673 0.304223 -0.209151 2 
1275 1 -0.247017 -0.405072 -0.461076 0.01 0.629107 -0.454373 0.695965 2 
1353 1 -0.24999 -0.391323 -0.47541 0.01 -0.384667 0.049375 -0.336596 2 
1437 1 -0.222309 -0.39008 -0.489996 0.01 0 0 -0.10273 0 
1494 1 -0.239732 -0.400461 -0.489988 0.01 0 0 -0.10273 0 
1530 1 -0.226082 -0.411172 -0.457428 0.01 -1.71112 -0.617304 -0.462741 2 
1722 1 -0.272829 -0.376234 -0.490006 0.01 -0.753983 -1.65494 1.55887 1 
1895 1 -0.288042 -0.422112 -0.47755 0.01 0.248393 -0.228587 -0.634019 2 
1920 1 -0.236669 -0.414154 -0.475558 0.01 1.46865 -1.04867 0.327071 3 
1972 1 -0.20578 -0.412544 -0.473309 0.01 0.612417 2.13722 5.99515 2 
2039 1 -0.273487 -0.395853 -0.472664 0.01 0 0 -0.10273 0 
2244 1 -0.231198 -0.425934 -0.444962 0.01 -0.531133 -1.02767 1.19146 1 
2315 1 -0.291289 -0.405124 -0.467518 0.01 0.277019 -1.08619 -0.354611 3 
2548 1 -0.2528 -0.377137 -0.490013 0.01 -0.00362271 -0.449218 -0.0192733 3 
2788 1 -0.227665 -0.377366 -0.464094 0.01 0.00211333 1.51251 1.09256 4 
2793 1 -0.259692 -0.38999 -0.45778 0.01 -1.47604 0.748483 0.0575763 2 
3090 1 -0.261828 -0.375441 -0.472275 0.01 -0.136342 -0.648208 0.623938 2 
3105 1 -0.247496 -0.42608 -0.463569 0.01 0.0208981 0.150935 -0.284071 1 
3111 1 -0.280488 -0.368148 -0.473263 0.01 0 0 -0.10273 0 
3247 1 -0.245418 -0.424835 -0.490011 0.01 0.1278 0.366974 0.0405466 3 
20 1 -0.177608 -0.381914 -0.489939 0.01 0.308508 0.0790847 -0.104798 1 
98 1 -0.211918 -0.379788 -0.476347 0.01 0.103083 -0.712225 0.388477 1 