ITEM: TIMESTEP
2000
ITEM: NUMBER OF ENTRIES
6180
ITEM: BOX BOUNDS mm mm mm
-0.5 0.5
-0.5 0.5
-0.5 0.5
ITEM: ENTRIES x1 y1 z1 x2 y2 z2 id1 id2 periodic fx fy fz
-0.453541 -0.441113 -0.471107 -0.447338 -0.441712 -0.452107 2651 793 0 0.0279752 0.00537431 0.221402 
-0.414679 -0.434361 -0.453495 -0.397294 -0.426496 -0.459469 123 2298 0 -0.38774 -0.25046 0.219759 
-0.371121 -0.489924 -0.489912 -0.36994 -0.476497 -0.475139 210 2060 0 -0.0420091 -0.105185 -0.137251 
-0.408768 -0.478161 -0.471022 -0.428748 -0.4783 -0.47123 391 1245 0 3.05652 -0.50812 -0.271337 
-0.382697 -0.443583 -0.486622 -0.399801 -0.43379 -0.489998 889 426 0 0.531163 -0.176147 0.1061 
-0.403433 -0.453458 -0.49 -0.399801 -0.43379 -0.489998 1074 426 0 0.0249259 0.0714518 -0.00951503 
-0.428748 -0.4783 -0.47123 -0.431654 -0.483864 -0.49007 1245 2681 0 0.26368 4.70493 20.2839 
-0.428748 -0.4783 -0.47123 -0.437715 -0.472454 -0.454454 1245 309 0 4.48523 -4.3587 -15.1674 
-0.387508 -0.490015 -0.473843 -0.389312 -0.478536 -0.490038 2723 2956 0 0.538002 -4.3855 9.74426 
-0.304262 -0.440902 -0.490013 -0.317202 -0.456128 -0.489989 528 2101 0 1.27418 1.02508 -0.0963791 
-0.304262 -0.440902 -0.490013 -0.292622 -0.445399 -0.47443 528 2142 0 -3.33537 -1.28629 -4.57227 
-0.294819 -0.473292 -0.473782 -0.305424 -0.478241 -0.490001 870 2110 0 2.66169 0.147972 -1.08905 
-0.294819 -0.473292 -0.473782 -0.293298 -0.462698 -0.456897 870 2547 0 -0.288235 -0.57684 -1.36925 
-0.294819 -0.473292 -0.473782 -0.285549 -0.480429 -0.490002 870 1667 0 0.735408 2.57596 -0.237415 
-0.281837 -0.445106 -0.457642 -0.292622 -0.445399 -0.47443 1393 2142 0 12.5183 -8.04621 1.13522 
-0.281837 -0.445106 -0.457642 -0.274856 -0.455445 -0.473226 1393 2607 0 -1.28479 1.89236 4.41895 
-0.281837 -0.445106 -0.457642 -0.266171 -0.452696 -0.447957 1393 809 0 -10.7142 4.24693 -9.62092 
-0.281837 -0.445106 -0.457642 -0.279346 -0.440038 -0.438463 1393 3151 0 0.213765 0.103524 0.716069 
-0.338325 -0.444326 -0.460139 -0.330727 -0.455641 -0.474761 1406 2958 0 -0.677571 0.621565 1.2847 
-0.285549 -0.480429 -0.490002 -0.305424 -0.478241 -0.490001 1667 2110 0 0.481012 0.0337512 -0.0397286 
-0.285549 -0.480429 -0.490002 -0.269793 -0.468338 -0.487677 1667 3138 0 -0.667727 0.938867 -2.84401 
-0.319613 -0.440507 -0.46786 -0.335691 -0.430864 -0.474786 1727 739 0 0.584106 -0.313887 0.403526 
-0.320846 -0.490004 -0.469849 -0.321798 -0.472762 -0.47991 1796 1942 0 0.411341 -1.90532 1.56523 
-0.321798 -0.472762 -0.47991 -0.317202 -0.456128 -0.489989 1942 2101 0 -1.01814 -2.00999 1.05988 
-0.321798 -0.472762 -0.47991 -0.305424 -0.478241 -0.490001 1942 2110 0 0.76367 0.213921 -0.19793 
-0.321798 -0.472762 -0.47991 -0.338305 -0.467636 -0.489971 1942 2697 0 -0.147318 0.0845159 -0.0889022 
-0.321798 -0.472762 -0.47991 -0.321594 -0.490006 -0.490006 1942 2771 0 -0.267418 2.02995 1.73023 
-0.321798 -0.472762 -0.47991 -0.330727 -0.455641 -0.474761 1942 2958 0 -1.07748 -2.39276 -1.05149 
-0.317202 -0.456128 -0.489989 -0.308689 -0.457075 -0.471959 2101 2496 0 -6.17875 -1.71794 -10.9341 
-0.305424 -0.478241 -0.490001 -0.321594 -0.490006 -0.490006 2110 2771 0 3.99844 -4.25412 0.625057 
-0.293298 -0.462698 -0.456897 -0.278513 -0.468068 -0.444593 2547 708 0 -1.74807 1.18143 -1.56053 
-0.330727 -0.455641 -0.474761 -0.335889 -0.443797 -0.490013 2958 3149 0 -0.26756 0.878328 2.0936 
-0.335889 -0.443797 -0.490013 -0.335691 -0.430864 -0.474786 3149 739 0 0.16055 -1.31025 -2.28981 
-0.256501 -0.453668 -0.465374 -0.253817 -0.438433 -0.47802 6 142 0 -2.91338 -1.60302 3.22421 
-0.256501 -0.453668 -0.465374 -0.249492 -0.457141 -0.483766 6 955 0 -2.32706 2.31749 3.16329 
-0.256501 -0.453668 -0.465374 -0.266171 -0.452696 -0.447957 6 809 0 4.73458 -1.48614 -12.2438 
-0.253817 -0.438433 -0.47802 -0.245418 -0.424835 -0.490011 142 3247 0 -0.876208 -1.9937 1.93143 
-0.279552 -0.490025 -0.47351 -0.275902 -0.472993 -0.46379 193 425 0 -1.51645 -8.40808 -2.77317 
-0.237181 -0.490003 -0.489997 -0.251483 -0.476031 -0.490003 267 2010 0 0.469623 -0.66393 0.063899 
-0.275902 -0.472993 -0.46379 -0.25789 -0.478061 -0.470847 425 2238 0 -1.01456 -1.97464 -2.08972 
-0.275902 -0.472993 -0.46379 -0.274856 -0.455445 -0.473226 425 2607 0 -1.42163 -6.96311 2.47504 
-0.275902 -0.472993 -0.46379 -0.278513 -0.468068 -0.444593 425 708 0 3.87512 -2.40389 0.100493 
-0.23667 -0.443115 -0.489994 -0.249492 -0.457141 -0.483766 443 955 0 -0.971113 -1.41506 -6.31648 
-0.265792 -0.490001 -0.489947 -0.251483 -0.476031 -0.490003 770 2010 0 0.17839 0.118889 0.013932 
-0.216567 -0.444017 -0.49 -0.208442 -0.425742 -0.490001 863 663 0 -0.462131 -0.102028 0.26355 
-0.249492 -0.457141 -0.483766 -0.251483 -0.476031 -0.490003 955 2010 0 -0.83663 -0.987898 5.95086 
-0.266688 -0.448568 -0.490039 -0.274856 -0.455445 -0.473226 1212 2607 0 3.93633 3.32248 -11.8707 
-0.241365 -0.488972 -0.468058 -0.25789 -0.478061 -0.470847 1963 2238 0 0.475799 -0.445527 0.0239257 
-0.251483 -0.476031 -0.490003 -0.269793 -0.468338 -0.487677 2010 3138 0 -1.52202 -0.380465 -13.5066 
-0.283203 -0.436998 -0.489997 -0.288042 -0.422112 -0.47755 2888 1895 0 -0.213326 0.589495 0.739813 
-0.249444 -0.441575 -0.451075 -0.252102 -0.432156 -0.433638 3187 219 0 0.035594 -0.114797 -0.369701 
-0.249444 -0.441575 -0.451075 -0.247496 -0.42608 -0.463569 3187 3105 0 -0.0191982 -0.138658 0.16659 
-0.154138 -0.452554 -0.490003 -0.174036 -0.45073 -0.490005 73 1827 0 2.436 0.0571804 0.395696 
-0.154138 -0.452554 -0.490003 -0.138716 -0.458993 -0.479054 73 77 0 -2.71767 1.06272 -1.57953 
-0.177092 -0.470471 -0.490002 -0.178884 -0.490012 -0.486274 208 1767 0 0.287975 3.42951 -0.237282 
-0.177092 -0.470471 -0.490002 -0.174036 -0.45073 -0.490005 208 1827 0 -0.853741 -3.04935 0.279826 
-0.164854 -0.428788 -0.46445 -0.173999 -0.432492 -0.481837 241 1073 0 -10.8806 8.09974 5.99077 
-0.164854 -0.428788 -0.46445 -0.175783 -0.434221 -0.448633 241 1601 0 1.9569 1.67083 -4.57306 
-0.164854 -0.428788 -0.46445 -0.164368 -0.409128 -0.468029 241 1164 0 -0.241317 -1.06429 0.237687 
-0.163716 -0.447619 -0.473065 -0.144987 -0.444512 -0.466801 251 2801 0 -1.01996 -0.0369175 -0.133734 
-0.155816 -0.430896 -0.490003 -0.173999 -0.432492 -0.481837 491 1073 0 -1.24626 3.69335 -2.32529 
-0.155816 -0.430896 -0.490003 -0.146954 -0.421961 -0.474464 491 1067 0 -0.493989 -0.252827 -0.705961 
-0.162856 -0.4488 -0.453062 -0.175783 -0.434221 -0.448633 776 1601 0 2.23586 -2.53203 -0.0881986 
-0.173999 -0.432492 -0.481837 -0.174036 -0.45073 -0.490005 1073 1827 0 -0.233632 2.0763 1.14325 
-0.173999 -0.432492 -0.481837 -0.188844 -0.421793 -0.489895 1073 2080 0 0.664606 -0.614325 0.235083 
-0.208488 -0.45197 -0.473044 -0.203588 -0.461548 -0.489894 1081 2518 0 -0.076131 0.305023 0.364363 
-0.208488 -0.45197 -0.473044 -0.204567 -0.432423 -0.47154 1081 2389 0 -0.0802662 -1.36532 -3.16781 
-0.152884 -0.483231 -0.490031 -0.162947 -0.489986 -0.474186 1563 2899 0 2.64405 1.88865 -6.62249 
-0.148819 -0.487183 -0.460325 -0.162947 -0.489986 -0.474186 2031 2899 0 1.94777 0.43248 2.86861 
-0.144987 -0.444512 -0.466801 -0.145782 -0.432232 -0.451041 2801 1611 0 0.0264938 1.12003 0.941155 
-0.144987 -0.444512 -0.466801 -0.138716 -0.458993 -0.479054 2801 77 0 -0.052385 0.182484 0.102467 
-0.144987 -0.444512 -0.466801 -0.131222 -0.430123 -0.465124 2801 2962 0 -1.33928 -2.09769 -0.126494 
-0.123176 -0.450167 -0.49 -0.108806 -0.46407 -0.489998 69 2602 0 -1.02204 1.47892 0.0165705 
-0.138716 -0.458993 -0.479054 -0.134571 -0.475167 -0.490011 77 85 0 -0.687637 1.66063 1.65341 
-0.138716 -0.458993 -0.479054 -0.122922 -0.4536 -0.468061 77 1931 0 -2.63499 -1.6685 -2.00829 
-0.138716 -0.458993 -0.479054 -0.134643 -0.475409 -0.46839 77 2334 0 -0.00795323 0.852528 -0.559733 
-0.134571 -0.475167 -0.490011 -0.126197 -0.490004 -0.479559 85 910 0 0.495807 3.09359 2.47414 
-0.114578 -0.436539 -0.474233 -0.122922 -0.4536 -0.468061 314 1931 0 2.56175 4.2399 -2.6681 
-0.114578 -0.436539 -0.474233 -0.110278 -0.42512 -0.490023 314 281 0 -1.43728 -3.53258 6.09158 
-0.114578 -0.436539 -0.474233 -0.096431 -0.428194 -0.475201 314 284 0 -0.641506 -0.450689 -0.0231315 
-0.0920889 -0.467683 -0.457518 -0.0779747 -0.472081 -0.470984 557 936 0 0.169003 -0.0164406 -0.121705 
-0.126197 -0.490004 -0.479559 -0.110223 -0.48402 -0.49 910 2113 0 0.124513 0.0574581 -0.124634 
-0.126197 -0.490004 -0.479559 -0.114273 -0.48563 -0.464111 910 2941 0 -0.119122 -0.00528561 -0.140065 
-0.0779747 -0.472081 -0.470984 -0.0754104 -0.477662 -0.490008 936 1850 0 13.2965 3.31021 2.26637 
-0.0911409 -0.490002 -0.490001 -0.0754104 -0.477662 -0.490008 1307 1850 0 -1.59392 -0.995435 -0.592685 
-0.0911409 -0.490002 -0.490001 -0.110223 -0.48402 -0.49 1307 2113 0 0.163547 -0.244349 -0.457747 
-0.0776133 -0.457785 -0.489918 -0.0754104 -0.477662 -0.490008 1669 1850 0 -7.06303 -0.666476 -1.35109 
-0.0776133 -0.457785 -0.489918 -0.0841443 -0.43889 -0.489484 1669 2725 0 0.0658213 -0.406386 -0.0492495 
-0.0754104 -0.477662 -0.490008 -0.0578073 -0.470212 -0.484163 1850 340 0 -3.269 -1.8062 -1.89182 
-0.0754104 -0.477662 -0.490008 -0.0596721 -0.490001 -0.490001 1850 2346 0 0.349952 -0.187858 0.0387479 
-0.122922 -0.4536 -0.468061 -0.115304 -0.466899 -0.455236 1931 2064 0 -0.790334 2.38456 -1.92782 
-0.0841443 -0.43889 -0.489484 -0.0865928 -0.41905 -0.490009 2725 1312 0 -0.0184108 -0.357651 0.0432111 
-0.0225472 -0.459349 -0.467575 -0.0199643 -0.471523 -0.483189 119 909 0 0.0946376 3.27015 3.23678 
-0.0225472 -0.459349 -0.467575 -0.0158629 -0.443668 -0.45716 119 2948 0 -0.455443 -2.40279 -1.79002 
0.00193698 -0.448709 -0.46557 0.0164184 -0.438985 -0.475345 327 1758 0 -0.275104 -0.118854 0.220507 
-0.0578073 -0.470212 -0.484163 -0.0387526 -0.471715 -0.490012 340 669 0 -1.5257 1.25142 0.949081 
-0.0578073 -0.470212 -0.484163 -0.0576002 -0.45109 -0.490002 340 1355 0 6.09461 0.928103 4.56476 
-0.0578073 -0.470212 -0.484163 -0.0590908 -0.472127 -0.464298 340 2485 0 0.0185985 0.0229249 0.358959 
-0.0387526 -0.471715 -0.490012 -0.0199643 -0.471523 -0.483189 669 909 0 -1.51629 0.0810911 -0.904504 
-0.0387526 -0.471715 -0.490012 -0.0405644 -0.467637 -0.470529 669 2969 0 -0.151416 -0.409225 -1.49791 
-0.0199643 -0.471523 -0.483189 -0.0134791 -0.452672 -0.484536 909 1764 0 -1.98164 -3.70043 -0.200959 
-0.0199643 -0.471523 -0.483189 -0.0229709 -0.49002 -0.490014 909 3074 0 0.580147 7.88462 3.90767 
-0.0622811 -0.445825 -0.471232 -0.0581612 -0.44814 -0.451834 1284 1685 0 -0.128075 0.713695 -8.9314 
-0.0576002 -0.45109 -0.490002 -0.0642554 -0.432234 -0.489997 1355 2848 0 -0.027183 0.0680726 -0.0143206 
-0.0581612 -0.44814 -0.451834 -0.0679929 -0.451293 -0.434779 1685 8658 0 2.5499 1.09852 -7.57688 
-0.0158629 -0.443668 -0.45716 -0.0226068 -0.425386 -0.452713 2948 272 0 -3.29944 -2.33596 -2.37905 
0.0578602 -0.490004 -0.480935 0.0756791 -0.489973 -0.490001 213 3008 0 -1.28839 -0.292897 0.684061 
0.0244921 -0.483072 -0.472061 0.0391451 -0.469596 -0.473962 638 3242 0 0.0137157 0.0183645 -0.000625519 
0.00428072 -0.427122 -0.49002 0.0242553 -0.427853 -0.489999 1174 3223 0 -1.00877 0.2398 -0.0170419 
0.00428072 -0.427122 -0.49002 0.00315325 -0.421306 -0.470963 1174 1752 0 0.714413 -1.19963 -6.12287 
0.0544427 -0.444918 -0.475049 0.0627259 -0.455126 -0.490036 1190 2273 0 -3.38051 5.32645 9.66582 
0.0544427 -0.444918 -0.475049 0.0559979 -0.427349 -0.465757 1190 2987 0 0.891871 -6.58415 -3.71522 
0.0429534 -0.458286 -0.490003 0.0391451 -0.469596 -0.473962 1691 3242 0 -3.40714 0.752208 -0.46114 
0.0164184 -0.438985 -0.475345 0.0249613 -0.449547 -0.490006 1758 2837 0 -11.2817 -9.39917 1.42296 
0.0627259 -0.455126 -0.490036 0.0750582 -0.44799 -0.476045 2273 2667 0 -1.12545 3.35043 -6.29518 
0.0249613 -0.449547 -0.490006 0.041368 -0.438192 -0.489995 2837 3330 0 -5.70368 -2.96892 -0.101166 
0.0526536 -0.480536 -0.464085 0.0391451 -0.469596 -0.473962 2954 3242 0 0.383586 -0.287818 0.413704 
0.0526536 -0.480536 -0.464085 0.0669407 -0.474041 -0.451701 2954 2648 0 -0.864729 -0.152252 -0.707462 
0.0242553 -0.427853 -0.489999 0.041368 -0.438192 -0.489995 3223 3330 0 -2.67318 -2.76721 -0.76001 
0.041368 -0.438192 -0.489995 0.0605814 -0.432818 -0.490008 3330 976 0 -8.31327 -3.10973 0.115289 
0.109672 -0.436383 -0.477198 0.118256 -0.449052 -0.490019 359 598 0 -3.00712 1.99756 3.23101 
0.109672 -0.436383 -0.477198 0.098597 -0.436194 -0.460593 359 1985 0 3.20349 -1.2481 -5.06326 
0.109672 -0.436383 -0.477198 0.118166 -0.423639 -0.490019 359 1107 0 -1.1661 -2.9994 3.42235 
0.113437 -0.481615 -0.485366 0.130989 -0.490007 -0.490002 420 549 0 2.78798 4.97163 4.12518 
0.130989 -0.490007 -0.490002 0.130894 -0.481092 -0.472111 549 2565 0 0.148469 -1.48731 -1.94921 
0.130989 -0.490007 -0.490002 0.143084 -0.474087 -0.490006 549 401 0 0.457332 -2.08277 1.21289 
0.118256 -0.449052 -0.490019 0.136112 -0.45616 -0.484584 598 2866 0 -2.83689 1.38015 -1.56528 
0.133036 -0.436123 -0.485252 0.124863 -0.425107 -0.470705 817 536 0 -0.162024 0.151594 0.1752 
0.133036 -0.436123 -0.485252 0.118166 -0.423639 -0.490019 817 1107 0 1.09921 -0.898368 0.664457 
0.0986196 -0.464174 -0.470568 0.0853957 -0.477108 -0.478169 1009 3139 0 -0.1577 -0.0991443 -0.0815651 
0.086501 -0.452094 -0.460203 0.098597 -0.436194 -0.460593 1940 1985 0 -3.59414 0.404906 -0.883709 
0.086501 -0.452094 -0.460203 0.0750582 -0.44799 -0.476045 1940 2667 0 2.14472 -0.17475 3.75617 
0.086501 -0.452094 -0.460203 0.0835077 -0.464938 -0.445195 1940 2294 0 0.0233669 1.67136 -1.90789 
0.098597 -0.436194 -0.460593 0.0999206 -0.421596 -0.447032 1985 1812 0 0.843855 -2.06342 -3.09353 
0.0750582 -0.44799 -0.476045 0.0802995 -0.432109 -0.486981 2667 1808 0 -0.157492 -1.90997 1.28299 
0.136112 -0.45616 -0.484584 0.143084 -0.474087 -0.490006 2866 401 0 -0.614397 2.02673 1.04621 
0.136112 -0.45616 -0.484584 0.143763 -0.466012 -0.468965 2866 685 0 -0.602944 0.40573 -0.99653 
0.136112 -0.45616 -0.484584 0.146703 -0.446302 -0.470798 2866 2774 0 -1.31158 -1.24587 -1.14426 
0.0756791 -0.489973 -0.490001 0.0853957 -0.477108 -0.478169 3008 3139 0 0.0356431 0.042255 0.060012 
0.208588 -0.440235 -0.476021 0.204567 -0.453941 -0.490012 55 64 0 0.453631 0.913599 1.38474 
0.204567 -0.453941 -0.490012 0.191602 -0.458817 -0.475621 64 240 0 1.81543 0.649838 -2.95411 
0.191602 -0.458817 -0.475621 0.177078 -0.454481 -0.462595 240 2095 0 3.6435 -1.03332 -2.13239 
0.191602 -0.458817 -0.475621 0.200499 -0.451841 -0.459127 240 3063 0 -4.66912 4.23981 0.200092 
0.156604 -0.479476 -0.476296 0.143084 -0.474087 -0.490006 259 401 0 5.7066 7.96186 -0.717062 
0.156604 -0.479476 -0.476296 0.143763 -0.466012 -0.468965 259 685 0 -1.94961 1.0277 -6.45564 
0.156604 -0.479476 -0.476296 0.166567 -0.490023 -0.462549 259 1653 0 -2.8656 5.42567 -6.36431 
0.210597 -0.431071 -0.442333 0.223765 -0.446074 -0.441211 292 2438 0 -0.146264 0.163552 -0.0568116 
0.213136 -0.426906 -0.461818 0.230661 -0.422841 -0.470456 512 1994 0 -6.07159 -0.563704 4.23324 
0.152825 -0.478073 -0.454332 0.166567 -0.490023 -0.462549 517 1653 0 -1.78902 2.31207 1.05848 
0.143763 -0.466012 -0.468965 0.130727 -0.464935 -0.453837 685 2917 0 -1.37779 1.68307 -1.55581 
0.143763 -0.466012 -0.468965 0.15694 -0.457692 -0.456436 685 2674 0 -0.35056 -0.146231 -0.417387 
0.189414 -0.436905 -0.471131 0.17963 -0.419463 -0.470908 791 238 0 -0.0602868 0.1853 0.00563246 
0.175037 -0.473294 -0.469431 0.166567 -0.490023 -0.462549 1161 1653 0 1.34023 3.53911 -1.11637 
0.175037 -0.473294 -0.469431 0.163307 -0.459665 -0.478174 1161 2231 0 0.750381 -1.39636 0.846636 
0.17959 -0.434418 -0.453802 0.168719 -0.4376 -0.470285 1491 1060 0 -0.294321 -0.100518 -0.303634 
0.209271 -0.471683 -0.482041 0.200326 -0.48263 -0.467895 2085 3325 0 0.0371728 0.0735603 -0.0656024 
0.146703 -0.446302 -0.470798 0.153075 -0.431364 -0.45914 2774 1983 0 3.43749 2.9469 -7.2272 
0.200499 -0.451841 -0.459127 0.219826 -0.446981 -0.4608 3063 2205 0 0.133558 0.00973991 -0.0244571 
0.235943 -0.442101 -0.471585 0.242913 -0.445562 -0.490002 28 1010 0 0.282726 -0.133579 -0.37656 
0.235943 -0.442101 -0.471585 0.219826 -0.446981 -0.4608 28 2205 0 -2.71227 -1.0206 -3.89101 
0.235943 -0.442101 -0.471585 0.23997 -0.440857 -0.452041 28 1873 0 -0.102012 0.0699632 -0.504489 
0.284621 -0.489966 -0.489961 0.282738 -0.475025 -0.476805 435 1589 0 0.0593248 0.479013 0.38086 
0.258318 -0.458311 -0.49 0.242913 -0.445562 -0.490002 450 1010 0 -0.632969 0.77217 -0.0427163 
0.258318 -0.458311 -0.49 0.264109 -0.468031 -0.473508 450 2429 0 0.00274281 -0.0147743 0.0237687 
0.258318 -0.458311 -0.49 0.278172 -0.460709 -0.490001 450 2943 0 1.00499 0.0731524 -0.0427124 
0.22591 -0.479678 -0.471825 0.239599 -0.476937 -0.457572 559 1976 0 -2.78431 -0.693095 -4.38171 
0.268128 -0.478636 -0.490001 0.251679 -0.490006 -0.490012 1571 3038 0 2.10979 -2.93673 0.407446 
0.243489 -0.471733 -0.489989 0.225493 -0.46301 -0.49 1597 2465 0 -0.0101599 0.00321132 0.001432 
0.252595 -0.484155 -0.470931 0.239599 -0.476937 -0.457572 1886 1976 0 -2.9443 0.528195 -4.28653 
0.252595 -0.484155 -0.470931 0.264109 -0.468031 -0.473508 1886 2429 0 -4.53059 -4.68925 -0.010777 
0.252595 -0.484155 -0.470931 0.251679 -0.490006 -0.490012 1886 3038 0 -0.995353 3.59183 0.696768 
0.239599 -0.476937 -0.457572 0.22849 -0.490006 -0.447319 1976 548 0 0.805934 1.33067 -1.27583 
0.239599 -0.476937 -0.457572 0.242866 -0.460073 -0.447394 1976 1658 0 -1.61709 -4.09103 -2.67742 
0.263363 -0.453797 -0.459473 0.275504 -0.445998 -0.445645 2790 2457 0 -2.06795 -1.57058 -3.66861 
0.278172 -0.460709 -0.490001 0.282738 -0.475025 -0.476805 2943 1589 0 0.0585637 -0.786707 0.854468 
0.350342 -0.465866 -0.490011 0.338068 -0.465625 -0.474255 1138 1621 0 1.56791 -0.214559 -3.0813 
0.350342 -0.465866 -0.490011 0.369571 -0.471332 -0.490001 1138 2367 0 -1.71884 0.470773 0.026946 
0.303252 -0.474834 -0.474433 0.292717 -0.489981 -0.466777 1348 3019 0 1.26464 1.91478 -1.53508 
0.346882 -0.454607 -0.46011 0.338068 -0.465625 -0.474255 1476 1621 0 1.56829 -8.45278 9.3582 
0.346882 -0.454607 -0.46011 0.332373 -0.45403 -0.446425 1476 617 0 -0.0437451 -4.32869 -13.8444 
0.346882 -0.454607 -0.46011 0.363932 -0.461984 -0.467436 1476 888 0 -10.5269 -5.67539 -2.53248 
0.338068 -0.465625 -0.474255 0.337258 -0.475022 -0.456628 1621 2587 0 5.64389 -2.12834 -1.54716 
0.291901 -0.445253 -0.457634 0.293013 -0.459241 -0.443402 2992 1990 0 0.196889 2.00124 -2.83728 
0.291901 -0.445253 -0.457634 0.2928 -0.425899 -0.462586 2992 3293 0 7.77391 -1.21189 -1.22473 
0.403636 -0.478423 -0.489478 0.396305 -0.459832 -0.490025 45 1236 0 0.619736 -1.01361 -0.0803851 
0.419765 -0.442079 -0.472659 0.413571 -0.449801 -0.490012 788 1883 0 1.33291 1.79628 3.34952 
0.419765 -0.442079 -0.472659 0.431339 -0.455491 -0.463413 788 2117 0 -1.81748 1.68572 -1.90394 
0.419765 -0.442079 -0.472659 0.410473 -0.424422 -0.47363 788 54 0 1.32288 -4.05756 -0.22638 
0.377961 -0.4427 -0.470094 0.390774 -0.427584 -0.472728 931 384 0 -2.21955 -1.75664 0.327123 
0.396305 -0.459832 -0.490025 0.381526 -0.46216 -0.476848 1236 1338 0 6.8027 1.17949 -6.07876 
0.396305 -0.459832 -0.490025 0.398854 -0.450195 -0.472701 1236 1539 0 -0.584295 -0.750151 -1.8575 
0.396305 -0.459832 -0.490025 0.413571 -0.449801 -0.490012 1236 1883 0 -4.60026 -2.43305 0.532722 
0.381526 -0.46216 -0.476848 0.363932 -0.461984 -0.467436 1338 888 0 5.93461 -0.529178 -4.01921 
0.413571 -0.449801 -0.490012 0.43276 -0.444195 -0.49 1883 2953 0 -2.81532 -1.05155 -0.559496 
0.410154 -0.459437 -0.456689 0.421947 -0.445313 -0.448982 2076 3145 0 -5.80598 -7.7789 -3.53253 
0.421947 -0.445313 -0.448982 0.424969 -0.428063 -0.458624 3145 3186 0 0.702898 -5.60359 -1.60172 
0.424969 -0.428063 -0.458624 0.415011 -0.42495 -0.441612 3186 1135 0 0.891291 -0.154499 -8.09722 
0.424969 -0.428063 -0.458624 0.435187 -0.42142 -0.474405 3186 2653 0 -5.47472 -1.56068 6.87662 
0.490001 -0.434823 -0.490004 0.490011 -0.418852 -0.477981 27 2789 0 0.0691127 -0.745542 -0.819308 
0.468932 -0.463515 -0.465387 0.471494 -0.45394 -0.482746 246 381 0 -0.100993 -0.450837 1.38435 
0.462227 -0.49002 -0.490006 0.450185 -0.474108 -0.490017 286 692 0 3.01639 -5.91515 -0.591162 
0.471494 -0.45394 -0.482746 0.489967 -0.456362 -0.489998 381 1019 0 -2.85949 0.900028 0.792372 
0.471494 -0.45394 -0.482746 0.472542 -0.472526 -0.490007 381 1817 0 -0.233553 1.42865 0.877884 
0.471494 -0.45394 -0.482746 0.463362 -0.43626 -0.487239 381 3190 0 2.38503 -3.44795 0.54241 
0.450185 -0.474108 -0.490017 0.44584 -0.465949 -0.472335 692 722 0 1.94065 -2.35557 -5.66287 
0.44584 -0.465949 -0.472335 0.431339 -0.455491 -0.463413 722 2117 0 1.16709 -3.01883 0.552831 
0.44584 -0.465949 -0.472335 0.449409 -0.47211 -0.453687 722 1017 0 -3.50701 2.38892 -8.6943 
0.445939 -0.44163 -0.475151 0.45168 -0.454076 -0.489713 1512 2970 0 0.280763 -0.643422 -0.84989 
0.445939 -0.44163 -0.475151 0.442396 -0.440348 -0.455513 1512 1661 0 -0.35165 0.00757495 0.912626 
0.445939 -0.44163 -0.475151 0.455871 -0.425016 -0.470128 1512 1791 0 0.168569 0.193511 0.0415822 
0.463362 -0.43626 -0.487239 0.446899 -0.425309 -0.490039 3190 47 0 3.1182 -2.56821 1.29992 
-0.444487 -0.358379 -0.490001 -0.461408 -0.367048 -0.483797 371 2002 0 -0.255889 0.343434 -0.663605 
-0.458353 -0.410249 -0.47283 -0.439075 -0.415571 -0.472847 553 3122 0 2.70259 -0.754403 -0.00603478 
-0.436868 -0.367471 -0.473676 -0.449484 -0.352152 -0.471283 839 1583 0 0.747543 -0.835815 0.0821992 
-0.461408 -0.367048 -0.483797 -0.45195 -0.380788 -0.47277 2002 3042 0 3.1019 3.1011 -4.76835 
-0.487885 -0.385629 -0.49 -0.47718 -0.39877 -0.479399 2050 2470 0 -1.77175 3.52804 -2.94003 
-0.489991 -0.409838 -0.49001 -0.47718 -0.39877 -0.479399 2464 2470 0 -0.989961 -0.692084 -1.10246 
-0.46559 -0.392423 -0.463881 -0.450127 -0.385386 -0.453445 2677 2711 0 -6.94656 -2.36357 -6.58955 
-0.45195 -0.380788 -0.47277 -0.450127 -0.385386 -0.453445 3042 2711 0 -1.55851 3.98688 -16.1654 
-0.415605 -0.417616 -0.465778 -0.417203 -0.40142 -0.477367 125 1305 0 0.537899 -2.65333 2.79111 
-0.389849 -0.374665 -0.47254 -0.382941 -0.367829 -0.490007 247 855 0 -0.74893 -0.511157 1.12632 
-0.389849 -0.374665 -0.47254 -0.40711 -0.368815 -0.464315 247 2114 0 0.894878 -0.318255 -0.67937 
-0.389849 -0.374665 -0.47254 -0.401181 -0.391091 -0.471325 247 2193 0 0.202215 0.377498 -0.0976172 
-0.422066 -0.380939 -0.471078 -0.423003 -0.387115 -0.490029 412 2824 0 -0.447117 3.41084 6.99853 
-0.422066 -0.380939 -0.471078 -0.42793 -0.371276 -0.45461 412 217 0 1.11899 -1.59684 -4.52816 
-0.393115 -0.406477 -0.46142 -0.401181 -0.391091 -0.471325 560 2193 0 -0.171016 0.201466 -0.137886 
-0.393115 -0.406477 -0.46142 -0.39611 -0.41136 -0.442263 560 3026 0 -0.505452 2.98467 -0.965747 
-0.382941 -0.367829 -0.490007 -0.366882 -0.379747 -0.489958 855 1535 0 -0.290279 0.258678 -0.0702131 
-0.382941 -0.367829 -0.490007 -0.372375 -0.363502 -0.47359 855 1715 0 1.72901 -5.69161 0.122392 
-0.417203 -0.40142 -0.477367 -0.401181 -0.391091 -0.471325 1305 2193 0 -0.223408 -0.11159 -0.128929 
-0.417203 -0.40142 -0.477367 -0.423003 -0.387115 -0.490029 1305 2824 0 1.24474 -4.45671 2.60504 
-0.366882 -0.379747 -0.489958 -0.358666 -0.397981 -0.489953 1535 478 0 -0.0508974 0.19766 -0.0202297 
-0.381288 -0.420362 -0.469766 -0.397294 -0.426496 -0.459469 2001 2298 0 -0.461395 -0.101461 0.395173 
-0.352379 -0.391768 -0.454664 -0.336573 -0.403681 -0.457515 2338 2201 0 -0.449093 0.412933 1.10438 
-0.29316 -0.373116 -0.458372 -0.292163 -0.386077 -0.473537 276 1004 0 0.380083 2.84577 4.64052 
-0.29316 -0.373116 -0.458372 -0.290213 -0.380617 -0.440158 276 2069 0 -0.863399 6.4077 -9.90464 
-0.29316 -0.373116 -0.458372 -0.292437 -0.353226 -0.459767 276 1820 0 0.268367 -10.35 2.72797 
-0.346981 -0.424472 -0.490003 -0.335691 -0.430864 -0.474786 282 739 0 -1.54294 -10.8789 -3.26397 
-0.335691 -0.430864 -0.474786 -0.32954 -0.411852 -0.47433 739 1939 0 8.20539 -4.77588 -2.64525 
-0.335691 -0.430864 -0.474786 -0.353871 -0.425348 -0.468602 739 1965 0 0.615753 -0.293657 -0.333378 
-0.31592 -0.423277 -0.45749 -0.311187 -0.407005 -0.468028 836 1249 0 -0.488108 -7.81083 4.3117 
-0.283392 -0.394043 -0.489985 -0.303338 -0.392732 -0.490007 1002 1339 0 1.51457 -0.317279 -0.214261 
-0.283392 -0.394043 -0.489985 -0.263399 -0.394087 -0.489988 1002 19 0 -1.10972 -0.208164 -0.0153926 
-0.292163 -0.386077 -0.473537 -0.294248 -0.374924 -0.490001 1004 1952 0 0.0166915 3.05979 3.24643 
-0.292163 -0.386077 -0.473537 -0.291289 -0.405124 -0.467518 1004 2315 0 2.04907 1.97578 3.62046 
-0.324032 -0.383082 -0.490002 -0.313694 -0.38797 -0.4736 1113 2297 0 -0.545786 0.5419 -1.29682 
-0.324032 -0.383082 -0.490002 -0.333476 -0.365454 -0.48999 1113 2947 0 1.68913 0.207535 -0.793584 
-0.335214 -0.392108 -0.474691 -0.33938 -0.40427 -0.490004 1146 1971 0 0.057051 0.802751 0.797696 
-0.311187 -0.407005 -0.468028 -0.313694 -0.38797 -0.4736 1249 2297 0 -11.3393 -7.77221 -3.0448 
-0.311187 -0.407005 -0.468028 -0.291289 -0.405124 -0.467518 1249 2315 0 -0.432198 -0.100259 4.50596 
-0.303338 -0.392732 -0.490007 -0.294248 -0.374924 -0.490001 1339 1952 0 -0.647711 -2.14472 -0.190117 
-0.303338 -0.392732 -0.490007 -0.313694 -0.38797 -0.4736 1339 2297 0 2.07499 0.217304 -2.81952 
-0.336032 -0.367444 -0.437066 -0.318648 -0.368182 -0.427213 1503 3483 0 0.216268 0.0345339 0.155312 
-0.323854 -0.352777 -0.477893 -0.333476 -0.365454 -0.48999 1707 2947 0 0.671655 1.52089 1.49366 
-0.323854 -0.352777 -0.477893 -0.323552 -0.336872 -0.490007 1707 228 0 -4.62553 1.33375 3.11433 
-0.323854 -0.352777 -0.477893 -0.319871 -0.338558 -0.464431 1707 719 0 -1.13251 -1.89378 -2.20669 
-0.292437 -0.353226 -0.459767 -0.30241 -0.338502 -0.450644 1820 1427 0 0.798357 -2.03519 -1.10393 
-0.292437 -0.353226 -0.459767 -0.283654 -0.335435 -0.457426 1820 3323 0 -1.6531 -6.10468 -0.487885 
-0.32954 -0.411852 -0.47433 -0.33938 -0.40427 -0.490004 1939 1971 0 -0.370718 0.129453 -0.508771 
-0.32954 -0.411852 -0.47433 -0.336573 -0.403681 -0.457515 1939 2201 0 2.19224 -1.25771 -5.05374 
-0.32954 -0.411852 -0.47433 -0.319351 -0.404762 -0.48996 1939 2925 0 -3.62781 -1.10598 5.52521 
-0.336573 -0.403681 -0.457515 -0.333412 -0.401179 -0.437935 2201 441 0 0.622895 -2.7931 -2.09073 
-0.313694 -0.38797 -0.4736 -0.32512 -0.38543 -0.457408 2297 1386 0 0.841754 -0.349418 -1.88968 
-0.345401 -0.372217 -0.454166 -0.357882 -0.379042 -0.440115 3068 1380 0 0.341587 0.159276 -0.251366 
-0.263399 -0.394087 -0.489988 -0.24999 -0.391323 -0.47541 19 1353 0 0.134438 -0.00839936 0.126666 
-0.263399 -0.394087 -0.489988 -0.2528 -0.377137 -0.490013 19 2548 0 -0.68208 -1.1007 -0.257213 
-0.255618 -0.410181 -0.481003 -0.245418 -0.424835 -0.490011 132 3247 0 2.41727 0.474181 2.49857 
-0.234179 -0.375587 -0.482911 -0.2528 -0.377137 -0.490013 283 2548 0 1.49932 0.427694 0.746646 
-0.234179 -0.375587 -0.482911 -0.227665 -0.377366 -0.464094 283 2788 0 -0.385016 -0.12259 -1.78603 
-0.268614 -0.377297 -0.445203 -0.259692 -0.38999 -0.45778 733 2793 0 -1.0344 1.80868 1.13701 
-0.268614 -0.377297 -0.445203 -0.268073 -0.362388 -0.458489 733 2986 0 0.064295 -1.71532 2.24762 
-0.268614 -0.377297 -0.445203 -0.262749 -0.371246 -0.427091 733 7706 0 0.701395 0.17217 -1.00252 
-0.211673 -0.365186 -0.490002 -0.211918 -0.379788 -0.476347 764 98 0 -0.098058 0.677506 -0.467261 
-0.211673 -0.365186 -0.490002 -0.214754 -0.34543 -0.490002 764 1277 0 0.246403 -0.678555 -0.0280772 
-0.230603 -0.395301 -0.472546 -0.24999 -0.391323 -0.47541 1158 1353 0 0.189235 -0.0335919 0.0678574 
-0.230603 -0.395301 -0.472546 -0.21317 -0.396945 -0.462898 1158 3103 0 -2.83326 0.0196028 4.72053 
-0.245656 -0.3604 -0.475328 -0.232681 -0.358399 -0.460243 1238 2345 0 0.686361 0.259642 0.646638 
-0.245656 -0.3604 -0.475328 -0.249465 -0.347398 -0.490029 1238 368 0 -0.367148 1.05795 -1.82877 
-0.223009 -0.412044 -0.490003 -0.236669 -0.414154 -0.475558 1264 1920 0 1.08554 0.0354688 -1.07792 
-0.223009 -0.412044 -0.490003 -0.208442 -0.425742 -0.490001 1264 663 0 -1.51773 -0.439077 -0.118972 
-0.247017 -0.405072 -0.461076 -0.236669 -0.414154 -0.475558 1275 1920 0 -1.87688 2.11561 2.09064 
-0.247017 -0.405072 -0.461076 -0.259692 -0.38999 -0.45778 1275 2793 0 2.4496 -2.5154 -1.282 
-0.226082 -0.411172 -0.457428 -0.231198 -0.425934 -0.444962 1530 2244 0 0.510947 0.988616 -1.245 
-0.226082 -0.411172 -0.457428 -0.21317 -0.396945 -0.462898 1530 3103 0 -2.20353 -1.61656 0.918041 
-0.272829 -0.376234 -0.490006 -0.264356 -0.359214 -0.483859 1722 2523 0 -1.09477 -2.00328 -1.26785 
-0.288042 -0.422112 -0.47755 -0.291289 -0.405124 -0.467518 1895 2315 0 0.0114835 0.392188 0.265872 
-0.236669 -0.414154 -0.475558 -0.245418 -0.424835 -0.490011 1920 3247 0 0.636538 1.15201 1.47494 
-0.20578 -0.412544 -0.473309 -0.204567 -0.432423 -0.47154 1972 2389 0 0.238783 4.30425 -0.448954 
-0.20578 -0.412544 -0.473309 -0.205906 -0.401664 -0.490041 1972 2278 0 0.0598216 -2.50712 6.29193 
-0.2528 -0.377137 -0.490013 -0.261828 -0.375441 -0.472275 2548 3090 0 1.00049 -0.707985 -2.91622 
-0.227665 -0.377366 -0.464094 -0.232681 -0.358399 -0.460243 2788 2345 0 -0.0978141 1.14651 0.352488 
-0.227665 -0.377366 -0.464094 -0.222458 -0.376048 -0.444836 2788 1282 0 -3.41647 -2.30679 0.00552013 
-0.227665 -0.377366 -0.464094 -0.236434 -0.390697 -0.452044 2788 1554 0 0.117653 0.238106 -0.137864 
-0.261828 -0.375441 -0.472275 -0.268073 -0.362388 -0.458489 3090 2986 0 0.850942 -1.32509 -2.16069 
-0.177608 -0.381914 -0.489939 -0.197579 -0.382987 -0.489957 20 3248 0 0.274459 0.0703563 -0.00183925 
-0.185911 -0.4019 -0.490012 -0.205906 -0.401664 -0.490041 367 2278 0 0.599805 -0.172268 -6.01899 
-0.185911 -0.4019 -0.490012 -0.17664 -0.394502 -0.473925 367 2384 0 -0.710234 -0.440881 -1.74285 
-0.208442 -0.425742 -0.490001 -0.188844 -0.421793 -0.489895 663 2080 0 -1.25042 0.436945 -4.29193 
-0.164368 -0.409128 -0.468029 -0.17664 -0.394502 -0.473925 1164 2384 0 5.51914 1.61093 2.77439 
-0.164368 -0.409128 -0.468029 -0.149142 -0.396297 -0.466264 1164 3296 0 -0.981329 -0.543582 -0.0577177 
-0.164368 -0.409128 -0.468029 -0.157689 -0.41617 -0.450556 1164 296 0 -2.85497 3.38544 -5.24017 